#Generated by cif2cell 1.2.45.  :  Failed to get author information, No journal information.

2 atoms
1 atom types

0.0 2.840050 xlo xhi
0.0 2.840050 ylo yhi
0.0 2.840050 zlo zhi
1.73902907096e-16 1.73902907096e-16 1.73902907096e-16 xy xz yz

Masses

1 63.546 # Cu

Atoms

1 1   0.046496162580000   2.831016738166500   2.796163275360000 
2 1   1.373527701400000   1.429059199050000   1.463912292650000 
